TITLE      =  Unstructured grid data 
VARIABLES  =  x  y  rho  u  v p H  Ma  s T time  sensor
ZONE    N  =  3481    E  =  6776    F = FEPOINT    ET = TRIANGLE 

0.00000000000000000000 0.00000000000000000000 1.00000000000000000000 1.00000000000000000000 0.00000000000000000000 0.17857142857142860315 1.12500000000000044409 2.00000000000000000000 0.17857142857142860315 2.18750000000000088818 0.00000000000000000000 0.00000000000000000000
2.00000000000000000000 0.00000000000000000000 2.66666666666666651864 0.37499999999999988898 0.00000000000000000000 0.80357142857142893622 1.12500000000000066613 0.57735026918962550901 0.20354866651817291046 3.69140625000000266454 0.00000000000000000000 0.00000000000000000000
2.00000000000000000000 1.00000000000000000000 2.66666666666666651864 0.37499999999999988898 0.00000000000000000000 0.80357142857142893622 1.12500000000000066613 0.57735026918962550901 0.20354866651817291046 3.69140625000000266454 0.00000000000000000000 0.00000000000000000000
0.00000000000000000000 1.00000000000000000000 1.00000000000000000000 1.00000000000000000000 0.00000000000000000000 0.17857142857142860315 1.12500000000000044409 2.00000000000000000000 0.17857142857142860315 2.18750000000000088818 0.00000000000000000000 0.00000000000000000000
1.00000000000000000000 0.00000000000000000000 2.66666666666666651864 0.37499999999999988898 0.00000000000000000000 0.80357142857142893622 1.12500000000000066613 0.57735026918962550901 0.20354866651817291046 3.69140625000000266454 0.00000000000000000000 0.00000000000000000000
0.00000000000000000000 0.50000000000000000000 1.00000000000000000000 1.00000000000000000000 0.00000000145502310000 0.17857142857142860315 1.12500000000000044409 2.00000000000000000000 0.17857142857142860315 2.18750000000000088818 0.00000000000000000000 0.00000000000000000000
1.00000000000000000000 1.00000000000000000000 2.66666666666666651864 0.37499999999999988898 0.00000000000000000000 0.80357142857142893622 1.12500000000000066613 0.57735026918962550901 0.20354866651817291046 3.69140625000000266454 0.00000000000000000000 0.00000000000000000000
0.50000000000000000000 0.00000000000000000000 1.00000000000000000000 0.99999999854498000662 -0.00000000000000000000 0.17857142857143429304 1.12499999854500010166 1.99999999708992803882 0.17857142857143429304 2.18750000000007061018 0.00000000000000000000 0.00000000000000000000
0.00000000000000000000 0.25000000000000000000 1.00000000000000000000 0.99999999999555999608 0.00000000000887090000 0.17857142857144001069 1.12499999999559996411 1.99999999999105604331 0.17857142857144001069 2.18750000000014077628 0.00000000000000000000 0.00000000000000000000
0.37500000000000000000 0.37500000000000000000 0.99966857944832676619 0.97944268440546478072 0.02055731559453330068 0.17848857892585537344 1.10478242425258144088 1.95944669185862907490 0.17857142857143049053 2.18720997817932216734 0.00000000000000000000 0.00000000000000000000
0.29703227398295001249 0.46272404863756999571 0.99994788068748352572 0.99756904706672666627 0.01323654986357910082 0.17855839887911131858 1.12264657492705044461 1.99533451913830184310 0.17857142857141788950 2.18745439488833692820 0.00000000000000000000 0.00000000000000000000
0.16666666666666998808 0.37500000000000000000 0.99999999994341992604 0.99999150646334977743 0.00002264943106160000 0.17857142855727012321 1.12499150674172621045 1.99998301346240792142 0.17857142857141514170 2.18749999995032817779 0.00000000000000000000 0.00000000000000000000
0.00000000000000000000 0.37500000000000000000 1.00000000000000000000 0.99999999989835997027 0.00000000040657850000 0.17857142857144001069 1.12499999989839993830 1.99999999979665599170 0.17857142857144001069 2.18750000000014077628 0.00000000000000000000 0.00000000000000000000
0.08333333333333299564 0.31250000000000000000 1.00000000000000000000 0.99999998421948999017 0.00000003506780820000 0.17857142857143129544 1.12499998421950020422 1.99999996843896599152 0.17857142857143129544 2.18750000000003419487 0.00000000000000000000 0.00000000000000000000
0.08333333333333299564 0.39930555555556002112 1.00000000000000000000 0.99999993473440995650 0.00000027006451580000 0.17857142857141469761 1.12499993473440018654 1.99999986946897045925 0.17857142857141469761 2.18749999999983035792 0.00000000000000000000 0.00000000000000000000
0.05078125000000000000 0.35590277777778001056 1.00000000000000000000 0.99999999606511003059 0.00000001226691350000 0.17857142857142568881 1.12499999606510003858 1.99999999213023627043 0.17857142857142568881 2.18749999999996536104 0.00000000000000000000 0.00000000000000000000
0.00000000000000000000 0.31250000000000000000 1.00000000000000000000 0.99999999996902000365 0.00000000008260140000 0.17857142857142291326 1.12499999996900035271 1.99999999993807175969 0.17857142857142291326 2.18749999999993161026 0.00000000000000000000 0.00000000000000000000
0.04166666666666699742 0.28125000000000000000 1.00000000000000000000 0.99999999966647001859 0.00000000069883280000 0.17857142857143717962 1.12499999966650032768 1.99999999933289207554 0.17857142857143717962 2.18750000000010613732 0.00000000000000000000 0.00000000000000000000
0.36265371588986999862 0.22040157088556999732 0.99999999279748008618 0.99978565062393798257 0.00010529419065999999 0.17857142677079190785 1.12478567733954548657 1.99957131521754760684 0.17857142857142188630 2.18749999369771375157 0.00000000000000000000 0.00000000000000000000
0.10894171697639999652 0.23495271069813000731 1.00000000000000000000 0.99999999311664000690 0.00000001015591160000 0.17857142857141708459 1.12499999311659992784 1.99999998623334440673 0.17857142857141708459 2.18749999999986011190 0.00000000000000000000 0.00000000000000000000
0.08309239596684199480 0.26941847204420998896 1.00000000000000000000 0.99999999560939001331 0.00000000793852380000 0.17857142857143137871 1.12499999560940011634 1.99999999121876448349 0.17857142857143137871 2.18750000000003508305 0.00000000000000000000 0.00000000000000000000
0.14723782875356999922 0.29060117058263001955 0.99999999999994004796 0.99999952072696995931 0.00000080740371820000 0.17857142857142441206 1.12499952072743392151 1.99999904145455542626 0.17857142857143940007 2.18750000000008082424 0.00000000000000000000 0.00000000000000000000
0.12825792891127998918 0.33940609478497002494 0.99999999999988009591 0.99999947766201990884 0.00000120910566840000 0.17857142857140154146 1.12499947766286778617 1.99999895532553328970 0.17857142857143151748 2.18749999999993205435 0.00000000000000000000 0.00000000000000000000
0.12373302764561999734 0.38280887256273998798 0.99999999999945998752 0.99999922653895001456 0.00000248336077760000 0.17857142857129526536 1.12499922654220352314 1.99999845308427381951 0.17857142857143026848 2.18749999999954924945 0.00000000000000000000 0.00000000000000000000
0.16623584772961999545 0.49456160033567997392 0.99999999931189997859 0.99999871132897955039 0.00007908800679740000 0.17857142839940773338 1.12499871428525599626 1.99999742918809619852 0.17857142857143273873 2.18749999939796380133 0.00000000000000000000 0.00000000000000000000
0.12593922348649999599 0.44592868659833001521 0.99999999999591993038 0.99999901311700001294 0.00000682717318990000 0.17857142857041519157 1.12499901313979533413 1.99999802628220524348 0.17857142857143520898 2.18749999999651167926 0.00000000000000000000 0.00000000000000000000
0.25803064857650997999 0.31950433535236999472 0.99999998109970011928 0.99977584619489168194 0.00030049669585759998 0.17857142384635019128 1.12477591174140112429 1.99955179026673568465 0.17857142857142513370 2.18749998346219642897 0.00000000000000000000 0.00000000000000000000
0.18879134770843000735 0.43486129870599998792 0.99999999628372004956 0.99996412943591339584 0.00017137630448450000 0.17857142764236710875 1.12496414383514098390 1.99992828972912906060 0.17857142857143709636 2.18749999674836015373 0.00000000000000000000 0.00000000000000000000
0.00000000000000000000 0.75000000000000000000 1.00000000000000000000 1.00000000000440003589 0.00000000000887090000 0.17857142857142860315 1.12500000000440047998 2.00000000000880007178 0.17857142857142860315 2.18750000000000088818 0.00000000000000000000 0.00000000000000000000
0.16068415008983000236 0.24034616868190000760 1.00000000000000000000 0.99999981446457997247 0.00000024245784250000 0.17857142857142113690 1.12499981446460051160 1.99999962892926030911 0.17857142857142113690 2.18749999999990940580 0.00000000000000000000 0.00000000000000000000
0.14177015927572000908 0.17090491535605001339 1.00000000000000000000 0.99999999714927001460 0.00000000310309960000 0.17857142857143717962 1.12499999714930032368 1.99999999429849206756 0.17857142857143717962 2.18750000000010613732 0.00000000000000000000 0.00000000000000000000
0.24617758614012999474 0.43268346699347998152 0.99999929555812394621 0.99948962493747517399 0.00192441031286249989 0.17857125246099839200 1.12449143074589663627 1.99898323675113509523 0.17857142857144259196 2.18749938361340090509 0.00000000000000000000 0.00000000000000000000
0.15274640586409998777 0.41416419586506997286 0.99999999995360000504 0.99999471885693991258 0.00002136516256350000 0.17857142855982263696 1.12499471908749959503 1.99998943818894581170 0.17857142857142263570 2.18749999995932764563 0.00000000000000000000 0.00000000000000000000
0.27083333333332998416 0.37051937589063999035 0.99999933197645163307 0.99904402662813351910 0.00169196922364990001 0.17857126156556185625 1.12404574794467704280 1.99809118570788202263 0.17857142857142663250 2.18749941547925486063 0.00000000000000000000 0.00000000000000000000
0.31820113891932000350 0.51786491350576002723 0.99976550452334422836 1.00247131730070293543 0.02514888585864590020 0.17851280745179093357 1.12773197624144772000 2.00566751547111676857 0.17857142857141947156 2.18729480202162607227 0.00000000000000000000 0.00000000000000000000
0.06303930592042999992 0.46062992718739997899 1.00000000000000000000 0.99999998748819995953 0.00000013886599850000 0.17857142857142579984 1.12499998748820018157 1.99999997497643478006 0.17857142857142579984 2.18749999999996624922 0.00000000000000000000 0.00000000000000000000
0.11975862322670000060 0.49206095106371999792 0.99999999999695998731 0.99999987490791997224 0.00000599129487000000 0.17857142857066699015 1.12499987492511022147 1.99999974985296069541 0.17857142857142699333 2.18749999999732125389 0.00000000000000000000 0.00000000000000000000
0.32476145310777998487 0.32987163271191000113 0.99999678365386623913 0.99724384642693453262 0.00283894070610039980 0.17857062448541943800 1.12225087032307557777 1.99449705769686391754 0.17857142857143565307 2.18749718569450424255 0.00000000000000000000 0.00000000000000000000
0.24469066465775998753 0.49009176235932000454 0.99999871645845184176 0.99989859799474323232 0.00261286411394039998 0.17857110768612638463 1.12490169577986365290 1.99980453709574823584 0.17857142857143104564 2.18749887690074373836 0.00000000000000000000 0.00000000000000000000
0.12500000000000000000 0.00000000000000000000 1.00000000000000000000 0.99999999999998001599 0.00000000000001130000 0.17857142857143429304 1.12500000000000000000 1.99999999999992805755 0.17857142857143429304 2.18750000000007061018 0.00000000000000000000 0.00000000000000000000
0.25000000000000000000 0.00000000000000000000 1.00000000000000000000 0.99999999999112998417 0.00000000000443550000 0.17857142857141999892 1.12499999999110000815 1.99999999998230815201 0.17857142857141999892 2.18749999999989519495 0.00000000000000000000 0.00000000000000000000
0.21914809253098999076 0.38201464238167998078 0.99999998560969993733 0.99987214785065015032 0.00030433878189339999 0.17857142497385813940 1.12487219873722432695 1.99974439409059456807 0.17857142857143312731 2.18749998740854412205 0.00000000000000000000 0.00000000000000000000
0.30114508158145997241 0.26024354808117000637 0.99999999278235995881 0.99981600198808595614 0.00015260865497050000 0.17857142676703219308 1.12481602875605868341 1.99963203015630797132 0.17857142857144220338 2.18749999368473302397 0.00000000000000000000 0.00000000000000000000
0.22943588573966000599 0.27535931710105998604 0.99999999990665999761 0.99998039428586915633 0.00002361372218390000 0.17857142854808580323 1.12498039473350308626 1.99996078916673614145 0.17857142857142080383 2.18749999991823296241 0.00000000000000000000 0.00000000000000000000
0.18671572027632998836 0.27423758605245002196 0.99999999999854005672 0.99999752979817002618 0.00000342783100030000 0.17857142857106078626 1.12499752980672118596 1.99999505960868995125 0.17857142857142577208 2.18749999999868860456 0.00000000000000000000 0.00000000000000000000
0.20661131804798998912 0.33057210595454000757 0.99999999960199992266 0.99996946678597398162 0.00005287263628450000 0.17857142847192811197 1.12496946855036905610 1.99993893652674681327 0.17857142857142813130 2.18749999965174479755 0.00000000000000000000 0.00000000000000000000
0.29118232871570998155 0.41456183968864002143 0.99998659176212545407 0.99717392492826317785 0.00690715264940390018 0.17856807652094158767 1.12219842058430163689 1.99440104156046826844 0.17857142857142116465 2.18748826774457683086 0.00000000000000000000 0.00000000000000000000
0.35055765565961000130 0.43178629264654000419 0.99933542172235700907 0.98411332143963858865 0.03480447816066579991 0.17840530608816751457 1.10967901286151660045 1.96971904106332584838 0.17857142857142793702 2.18691837802906841048 0.00000000000000000000 0.00000000000000000000
0.33062339707694998747 0.38955258596538000493 0.99993123479076406745 0.99172649572799331796 0.01268783031373489981 0.17855423750556659312 1.11682402002656555595 1.98364259071082726926 0.17857142857143962211 2.18743982920073776199 0.00000000000000000000 0.00000000000000000000
0.51575308564746003004 0.46923737228937001387 0.95586209759804885433 0.94122406035432248927 -0.03009828744013230001 0.16763523610600886138 1.05722019074380524373 1.90049138376868453904 0.17857142857141172776 2.14835554988408272692 0.00000000000000000000 0.00000000000000000000
0.43663096844179000167 0.43518108962764001646 0.98583992815582266456 0.93017562972808309762 0.06826252860275990042 0.17504146454615140960 1.05638806681784735986 1.87068215814928473506 0.17857142857143157300 2.17505690269772911094 0.00000000000000000000 0.00000000000000000000
0.39424689277905000662 0.41693784599230998555 0.99716021852370617662 0.95999853228544962391 0.05092908502975029839 0.17786188664956603667 1.08638492573236655758 1.92379088824855526418 0.17857142857142713210 2.18501307110195952532 0.00000000000000000000 0.00000000000000000000
0.04449639538524600285 0.50109330554586994921 1.00000000000000000000 1.00000000010220002622 0.00000004256632390000 0.17857142857142843662 1.12500000010220047031 2.00000000020440271697 0.17857142857142843662 2.18749999999999866773 0.00000000000000000000 0.00000000000000000000
0.00000000000000000000 0.62500000000000000000 1.00000000000000000000 1.00000000010160006170 0.00000000040657850000 0.17857142857142860315 1.12500000010160050579 2.00000000020320012339 0.17857142857142860315 2.18750000000000088818 0.00000000000000000000 0.00000000000000000000
0.00000000000000000000 0.56250000000000000000 1.00000000000000000000 1.00000000013220002870 0.00000000105788520000 0.17857142857142860315 1.12500000013220047279 2.00000000026440005740 0.17857142857142860315 2.18750000000000088818 0.00000000000000000000 0.00000000000000000000
0.13626083927034998711 0.61851435891580996973 0.99999999999770006198 1.00000162479744991728 0.00000498675837650000 0.17857142857087210386 1.12500162481069354570 2.00000324962058417810 0.17857142857144708836 2.18749999999821520547 0.00000000000000000000 0.00000000000000000000
0.13974507209424000265 0.55375618871082998851 0.99999999997852007105 1.00000225009534005061 0.00001507934166310000 0.17857142856605515147 1.12500225020618271898 2.00000450042667754502 0.17857142857142513370 2.18749999998116351207 0.00000000000000000000 0.00000000000000000000
0.00000000000000000000 0.43750000000000000000 1.00000000000000000000 0.99999999986776000327 0.00000000105788520000 0.17857142857144001069 1.12499999986779997130 1.99999999973545605769 0.17857142857144001069 2.18750000000014077628 0.00000000000000000000 0.00000000000000000000
0.23300067240776001221 0.18335256322019000130 0.99999999999996003197 0.99999944477321001113 0.00000046817110200000 0.17857142857140678727 1.12499944477342261884 1.99999888954672133679 0.17857142857141677927 2.18749999999982103205 0.00000000000000000000 0.00000000000000000000
0.06990538319339299755 0.17450698627489999448 1.00000000000000000000 0.99999999996641997235 0.00000000004436830000 0.17857142857142291326 1.12499999996640021038 1.99999999993287169708 0.17857142857142291326 2.18749999999993161026 0.00000000000000000000 0.00000000000000000000
0.00000000000000000000 0.12500000000000000000 1.00000000000000000000 0.99999999999999000799 0.00000000000001510000 0.17857142857143148973 1.12500000000000044409 1.99999999999996402877 0.17857142857143148973 2.18750000000003641532 0.00000000000000000000 0.00000000000000000000
0.03953861066341800290 0.14327803474712999532 1.00000000000000000000 0.99999999999929001238 0.00000000000091900000 0.17857142857143140646 1.12499999999930011541 1.99999999999856448163 0.17857142857143140646 2.18750000000003508305 0.00000000000000000000 0.00000000000000000000
0.12895449424454000220 0.13338857871408998923 1.00000000000000000000 0.99999999982393994458 0.00000000017819380000 0.17857142857141719561 1.12499999982390019859 1.99999999964794361595 0.17857142857141719561 2.18749999999986100008 0.00000000000000000000 0.00000000000000000000
0.40138373898217000191 0.29510078164372999243 0.99998824123842744438 0.99365302278413436543 0.00305474645933150003 0.17856848888793988572 1.11867489088119453911 1.98732011033368949349 0.17857142857141958259 2.18748971104721867675 0.00000000000000000000 0.00000000000000000000
0.29505635399296997745 0.30112784433398998019 0.99999990980706199295 0.99946048275177967746 0.00055598850207860004 0.17857140602320276113 1.12446076030461128425 1.99892131085128932355 0.17857142857143684656 2.18749992108127910839 0.00000000000000000000 0.00000000000000000000
0.20447016923863001181 0.47489597006331002449 0.99999996834646021071 0.99995965407519138424 0.00047496056851380002 0.17857142065804523789 1.12495975976947959474 1.99991954640791180786 0.17857142857143012971 2.18749997230317250185 0.00000000000000000000 0.00000000000000000000
0.06679735494309800570 0.59375000000000000000 1.00000000000000000000 1.00000002155119993574 0.00000009958444960000 0.17857142857142710435 1.12500002155119993574 2.00000004310241807914 0.17857142857142710435 2.18749999999998223643 0.00000000000000000000 0.00000000000000000000
0.20869718624569999488 0.54908878134562999485 0.99999996450960038086 1.00008353775218239434 0.00049573001388060001 0.17857141969881470955 1.12508365524293463267 2.00016733542949509683 0.17857142857141455883 2.18749996894572884543 0.00000000000000000000 0.00000000000000000000
0.08695159611644200093 0.53677390328456997537 0.99999999999996003197 1.00000006237472005566 0.00000070059927480000 0.17857142857140850811 1.12500006237492233829 2.00000012475000410461 0.17857142857141850012 2.18749999999984190424 0.00000000000000000000 0.00000000000000000000
0.04473509244788499706 0.55389323888138997098 1.00000000000000000000 1.00000000404510003271 0.00000003417077630000 0.17857142857142838110 1.12500000404510003271 2.00000000809020228587 0.17857142857142838110 2.18749999999999822364 0.00000000000000000000 0.00000000000000000000
0.04227944732161099950 0.41973975375220001771 1.00000000000000000000 0.99999999624088997674 0.00000002143806160000 0.17857142857143140646 1.12499999624090030181 1.99999999248176485445 0.17857142857143140646 2.18750000000003508305 0.00000000000000000000 0.00000000000000000000
0.10687790825977999676 0.19345768394247001010 1.00000000000000000000 0.99999999899287994598 0.00000000129157090000 0.17857142857143429304 1.12499999899290004102 1.99999999798572791754 0.17857142857143429304 2.18750000000007061018 0.00000000000000000000 0.00000000000000000000
0.07865559246573000651 0.12411426627409000156 1.00000000000000000000 0.99999999999601996148 0.00000000000446300000 0.17857142857142291326 1.12499999999600008849 1.99999999999207167534 0.17857142857142291326 2.18749999999993161026 0.00000000000000000000 0.00000000000000000000
0.00000000000000000000 0.18750000000000000000 1.00000000000000000000 0.99999999999969002573 0.00000000000050360000 0.17857142857143148973 1.12499999999970023978 1.99999999999936406425 0.17857142857143148973 2.18750000000003641532 0.00000000000000000000 0.00000000000000000000
0.19350391110039000253 0.13228545097096000571 1.00000000000000000000 0.99999999413637996604 0.00000000488742300000 0.17857142857143429304 1.12499999413640017210 1.99999998827272795765 0.17857142857143429304 2.18750000000007061018 0.00000000000000000000 0.00000000000000000000
0.11518291379377000594 0.06704394915337599792 1.00000000000000000000 0.99999999999883004698 0.00000000000104210000 0.17857142857141999892 1.12499999999880007095 1.99999999999770827763 0.17857142857141999892 2.18749999999989519495 0.00000000000000000000 0.00000000000000000000
0.25740028948360998973 0.23037035788233001243 0.99999999997421995523 0.99998763538167989573 0.00001112508551660000 0.17857142856499524930 1.12498763551360170254 1.99997527089737547890 0.17857142857144026049 2.18749999997758637349 0.00000000000000000000 0.00000000000000000000
0.20808934437887000035 0.22612007376327999952 0.99999999999975996978 0.99999878926291996262 0.00000129044527110000 0.17857142857137128789 1.12499878926443530602 1.99999757852758608401 0.17857142857143129544 2.18749999999982369658 0.00000000000000000000 0.00000000000000000000
0.18633724917170998991 0.18481089612598000649 1.00000000000000000000 0.99999993470329995304 0.00000006498049000000 0.17857142857142740966 1.12499993470330017509 1.99999986940661078627 0.17857142857142740966 2.18749999999998623323 0.00000000000000000000 0.00000000000000000000
0.30531772073488000485 0.17566396094383998627 0.99999999999608002454 0.99999419986050996911 0.00000348152607490000 0.17857142857044677742 1.12499419988240512147 1.99998839973471920217 0.17857142857142677128 2.18749999999654853866 0.00000000000000000000 0.00000000000000000000
0.29812416704766997455 0.21770179484071999765 0.99999999984205989456 0.99996795252825754208 0.00002291764500990000 0.17857142853195412391 1.12496795326493903566 1.99993590564486511951 0.17857142857143915027 2.18749999986193222057 0.00000000000000000000 0.00000000000000000000
0.37068939195623001881 0.32927084994123001493 0.99996950547132257281 0.99148341065531098160 0.00645048221842420017 0.17856380498577040239 1.11653285746090791264 1.98302088140056831378 0.17857142857144367443 2.18747331704348590975 0.00000000000000000000 0.00000000000000000000
0.35039570774520001351 0.28017028554074002722 0.99999947049950999034 0.99855501048434858191 0.00098338222535470005 0.17857129619632497453 1.12355640562687297823 1.99711120090273852590 0.17857142857143346037 2.18749953668705821030 0.00000000000000000000 0.00000000000000000000
0.02608878847345999855 0.59375000000000000000 1.00000000000000000000 1.00000000105879993662 0.00000000535243890000 0.17857142857142860315 1.12500000105880015866 2.00000000211759987323 0.17857142857142860315 2.18750000000000088818 0.00000000000000000000 0.00000000000000000000
0.10921045839349000084 0.58458612929892994625 0.99999999999973998577 1.00000038478613006987 0.00000177771919780000 0.17857142857137142666 1.12500038478774699868 2.00000076957548111878 0.17857142857143643022 2.18749999999986943777 0.00000000000000000000 0.00000000000000000000
0.07218050100364199750 0.68845434868360999570 1.00000000000000000000 1.00000000714230008469 0.00000001621405630000 0.17857142857142860315 1.12500000714230052878 2.00000001428460016939 0.17857142857142860315 2.18750000000000088818 0.00000000000000000000 0.00000000000000000000
0.17671183534731998988 0.58821795695087997213 0.99999999940294004297 1.00001947206913577304 0.00007135836858230001 0.17857142842216136569 1.12501947465545226734 2.00003894946903004737 0.17857142857142635495 2.18749999947754592000 0.00000000000000000000 0.00000000000000000000
0.49328960028087998069 0.64826012332687998896 0.99850724155670511628 1.05175609540807935005 0.00234253203285979998 0.17819835041026507727 1.17772482897355601494 2.10414598000262387245 0.17857142857141686254 2.18619325095979233353 0.00000000000000000000 0.00000000000000000000
0.25000000000000000000 1.00000000000000000000 1.00000000000000000000 1.00000000000889999185 0.00000000000443550000 0.17857142857142860315 1.12500000000890043594 2.00000000001779998371 0.17857142857142860315 2.18750000000000088818 0.00000000000000000000 0.00000000000000000000
0.28955135426193001624 0.59231698194408999303 0.99999017706456261312 1.00261365320268480694 0.00595816463386520008 0.17856897284237288615 1.12763236291594992622 2.00526665281304961042 0.17857142857140770320 2.18749140490590887609 0.00000000000000000000 0.00000000000000000000
0.32857030805455000877 0.62928177725427003608 0.99997063962843102392 1.00632797973434007233 0.00839100172915429980 0.17856408852162389267 1.13137586569551329418 2.01273774350263323640 0.17857142857141430903 2.18747430944841614320 0.00000000000000000000 0.00000000000000000000
0.22155139006957000336 0.69023938456329003710 0.99999999952697993244 1.00003737529851877142 0.00005470528591120000 0.17857142845318171864 1.12503737737508302530 2.00007475377876353662 0.17857142857143673553 2.18749999958620833240 0.00000000000000000000 0.00000000000000000000
0.17298121939630001220 0.53310516374849004073 0.99999999880329992763 1.00001034506225616738 0.00010219039155340000 0.17857142827225938597 1.12501035003804994439 2.00002070104593299149 0.17857142857143440406 2.18749999895295976771 0.00000000000000000000 0.00000000000000000000
0.26639617989759001304 0.54381221158536996452 0.99999461144973922355 1.00091870604911004072 0.00489848000932179960 0.17857008143529148891 1.12592977847288744364 2.00186354247010855900 0.17857142857140487213 2.18749528501060952479 0.00000000000000000000 0.00000000000000000000
0.11813202431802999337 0.71214294297467994888 1.00000000000000000000 1.00000007717900007975 0.00000013892605990000 0.17857142857142496717 1.12500007717900007975 2.00000015435804012753 0.17857142857142496717 2.18749999999995647926 0.00000000000000000000 0.00000000000000000000
0.23986638319552000542 0.57181628689429997436 0.99999962539817510709 1.00039705712419912942 0.00143822397750740009 0.17857133492097629346 1.12539807654500623180 2.00079633181498817152 0.17857142857142549452 2.18749967222332930561 0.00000000000000000000 0.00000000000000000000
0.50000000000000000000 1.00000000000000000000 1.00000000000000000000 1.00000000145499989834 -0.00000000000000000000 0.17857142857142860315 1.12500000145500012039 2.00000000290999979669 0.17857142857142860315 2.18750000000000088818 0.00000000000000000000 0.00000000000000000000
0.04196847291904400035 0.21875000000000000000 1.00000000000000000000 0.99999999996574995276 0.00000000005577470000 0.17857142857144289727 1.12499999996580024586 1.99999999993141996946 0.17857142857144289727 2.18750000000017630342 0.00000000000000000000 0.00000000000000000000
0.00000000000000000000 0.06250000000000000000 1.00000000000000000000 1.00000000000000000000 0.00000000000000020000 0.17857142857142860315 1.12500000000000044409 2.00000000000000000000 0.17857142857142860315 2.18750000000000088818 0.00000000000000000000 0.00000000000000000000
0.20493296267944999256 0.04258458957225699781 1.00000000000000000000 0.99999999996955002413 0.00000000001964510000 0.17857142857141430903 1.12499999996950017511 1.99999999993917998431 0.17857142857141430903 2.18749999999982591703 0.00000000000000000000 0.00000000000000000000
0.16053526834286999114 0.09223151236067700376 1.00000000000000000000 0.99999999990929999694 0.00000000007550550000 0.17857142857142860315 1.12499999990930033000 1.99999999981859999387 0.17857142857142860315 2.18750000000000088818 0.00000000000000000000 0.00000000000000000000
0.26278056115826997630 0.11951243074018000345 1.00000000000000000000 0.99999993985918000927 0.00000003749550040000 0.17857142857143357140 1.12499993985920010431 1.99999987971833359524 0.17857142857143357140 2.18750000000006217249 0.00000000000000000000 0.00000000000000000000
0.37500000000000000000 0.00000000000000000000 1.00000000000000000000 0.99999999959342000810 0.00000000010164460000 0.17857142857142291326 1.12499999959340035716 1.99999999918687176859 0.17857142857142291326 2.18749999999993161026 0.00000000000000000000 0.00000000000000000000
0.04879207172207700172 0.64227861662500995710 1.00000000000000000000 1.00000000350269990790 0.00000001110801740000 0.17857142857142860315 1.12500000350270035199 2.00000000700539981580 0.17857142857142860315 2.18750000000000088818 0.00000000000000000000 0.00000000000000000000
0.09267877671095199610 0.63095713431310995745 1.00000000000000000000 1.00000008979769994255 0.00000027930133460000 0.17857142857141630743 1.12500008979769994255 2.00000017959554643454 0.17857142857141630743 2.18749999999985034194 0.00000000000000000000 0.00000000000000000000
0.00000000000000000000 0.68750000000000000000 1.00000000000000000000 1.00000000003100009138 0.00000000008260140000 0.17857142857142860315 1.12500000003100053547 2.00000000006200018277 0.17857142857142860315 2.18750000000000088818 0.00000000000000000000 0.00000000000000000000
0.10880353821417000637 0.66910827458474997353 1.00000000000000000000 1.00000013028950007765 0.00000030139735600000 0.17857142857141319880 1.12500013028950007765 2.00000026057917690281 0.17857142857141319880 2.18749999999981215026 0.00000000000000000000 0.00000000000000000000
0.21615315606384000180 0.76811842616343994905 0.99999999999914002125 1.00000223364563001205 0.00000236467616670000 0.17857142857120739121 1.12500223365068396930 2.00000446729723035943 0.17857142857142238590 2.18749999999917266180 0.00000000000000000000 0.00000000000000000000